LAMMPS data file

6250 atoms
2 atom types
6125 bonds
1 bond types
6000 angles
1 angle types

772.1574868504 827.8425131496 xlo xhi
772.1574868504 827.8425131496 ylo yhi
772.1574868504 827.8425131496 zlo zhi

Masses

1 1
2 1

Atoms # full

25 1 1 0 792.126 791.907 792.238
7 1 1 0 792.02 791.773 793.332
10 1 2 0 793.077 791.754 793.547
22 1 2 0 791.57 792.332 791.388
31 1 1 0 792.66 792.753 791.458
9 1 1 0 792.495 792.755 793.321
18 1 2 0 792.167 793.042 792.34
41 1 1 0 793.115 792.288 792.55
2 1 2 0 791.539 793.3 793.162
23 1 1 0 791.395 791.351 791.64
20 1 2 0 791.289 793.816 792.196
19 1 1 0 791.786 793.411 791.613
15 1 1 0 793.127 793.361 792.705
32 1 2 0 792.82 793.629 791.678
16 1 2 0 793.29 793.738 793.1
33 1 1 0 793.619 793.289 791.746
8 1 2 0 792.094 792.368 793.211
1 1 1 0 791.811 792.94 794.103
40 1 2 0 793.496 792.784 793.566
14 1 2 0 792.397 793.782 793.673
26 1 2 0 792.463 791.676 791.432
17 1 1 0 792.295 793.984 792.585
27 1 1 0 792.986 791.259 792.107
4 1 2 0 791.292 793.896 794.005
30 1 2 0 793.418 792.214 791.462
28 1 2 0 793.839 791.377 792.033
29 1 1 0 794.319 791.958 791.922
45 1 1 0 794.151 791.208 793.778
57 2 1 0 794.967 792.357 792.721
34 1 2 0 794.415 793.005 791.649
37 1 1 0 794.126 793.006 792.697
46 1 2 0 794.768 791.831 793.614
42 1 2 0 793.933 791.984 792.967
62 2 2 0 795.303 791.527 792.038
61 2 1 0 795.366 792.4 791.76
63 2 1 0 795.692 791.608 792.93
56 2 2 0 795.58 792.564 793.453
60 2 2 0 796.001 792.757 791.448
58 2 2 0 796.087 792.623 792.525
35 1 1 0 794.437 794.015 791.784
36 1 2 0 794.253 793.789 792.535
5056 102 2 0 795.282 793.538 808.893
53 2 1 0 795.271 793.335 792.311
54 2 2 0 795.148 793.433 792.977
5055 102 1 0 796.032 793.8 809.287
52 2 2 0 796.135 793.689 792.779
38 1 2 0 794.519 792.857 793.585
65 2 1 0 795.802 791.661 794.021
55 2 1 0 795.527 793.318 793.805
39 1 1 0 794.251 793.585 793.607
51 2 1 0 796.202 794.046 793.367
82 2 2 0 796.323 791.787 791.889
64 2 2 0 796.472 791.866 793.443
89 2 1 0 797.505 791.343 793.481
75 2 1 0 796.738 792.939 793.369
87 2 1 0 797.177 791.837 792.627
85 2 1 0 797.052 792.456 791.398
86 2 2 0 797.111 792.242 792.519
93 2 1 0 798.125 791.83 794.173
5108 103 2 0 798.005 792.186 809.508
112 3 2 0 798.219 791.945 792.925
92 2 2 0 798.613 791.486 793.833
59 2 1 0 796.812 793.201 792.142
74 2 2 0 797.181 793.727 793.087
106 3 2 0 797.739 793.316 791.618
107 3 1 0 797.846 793.014 792.637
76 2 2 0 797.515 792.487 793.538
83 2 1 0 797.176 791.424 791.637
102 3 2 0 798.512 793.937 792.489
5107 103 1 0 798.215 791.361 808.982
109 3 1 0 798.218 793.466 793.536
108 3 2 0 797.663 793.465 793.993
105 3 1 0 798.406 793.868 791.394
120 3 2 0 798.729 792.989 791.999
110 3 2 0 798.848 793.105 793.078
111 3 1 0 798.615 792.461 793.346
113 3 1 0 798.889 791.623 792.711
115 3 1 0 799.051 791.953 791.67
114 3 2 0 799.321 792.276 792.429
116 3 2 0 799.609 791.362 791.867
128 3 2 0 800.646 791.797 792.945
129 3 1 0 800.018 791.654 792.912
124 3 2 0 800.295 792.762 792.545
117 3 1 0 800.337 791.907 791.886
118 3 2 0 800.781 792.76 791.586
125 3 1 0 799.941 792.933 793.042
119 3 1 0 799.785 792.727 791.484
121 3 1 0 799.416 793.411 792.207
123 3 1 0 800.522 793.509 792.33
122 3 2 0 800.031 793.79 792.259
130 3 2 0 799.56 792.011 793.658
132 3 2 0 799.432 793.286 793.958
127 3 1 0 800.636 791.701 793.989
126 3 2 0 800.492 792.623 793.617
156 4 2 0 801.223 793.292 793.229
137 3 1 0 800.323 793.9 793.343
136 3 2 0 799.441 794.023 793.112
131 3 1 0 799.445 792.805 793.958
145 3 1 0 801.333 792.499 792.459
147 3 1 0 801.814 791.451 791.699
159 4 1 0 801.515 792.196 793.489
146 3 2 0 801.372 791.771 792.11
144 3 2 0 801.565 793.231 792.212
150 3 2 0 801.815 792.517 791.447
160 4 2 0 802.268 792.075 792.787
161 4 1 0 802.609 792.747 792.161
167 4 1 0 802.812 791.741 791.867
164 4 2 0 803.29 792.473 791.177
168 4 2 0 803.65 792.433 792.19
179 4 1 0 803.342 793.507 792.319
180 4 2 0 803.374 792.9 793.133
152 4 2 0 802.306 793.929 792.46
143 3 1 0 801.338 793.871 791.713
162 4 2 0 802.411 793.441 791.507
183 4 1 0 803.061 793.912 793.293
169 4 1 0 803.358 791.847 792.769
151 4 1 0 802.279 793.175 793.053
155 4 1 0 801.313 793.912 793.769
182 4 2 0 802.895 793.605 793.824
157 4 1 0 801.843 793.044 794.045
1412 29 2 0 802.649 792.414 793.762
1161 24 1 0 801.558 808.842 793.04
184 4 2 0 803.77 794.043 793.191
163 4 1 0 803.132 793.198 791.294
165 4 1 0 803.791 791.654 791.385
1171 24 1 0 802.707 808.949 793.509
174 4 2 0 803.672 792.053 793.776
170 4 2 0 804.194 791.527 792.406
181 4 1 0 803.71 793.144 794.004
171 4 1 0 804.371 791.609 793.089
177 4 1 0 804.35 793.213 792.725
176 4 2 0 804.604 792.619 792.686
5191 104 1 0 804.665 792.191 809.298
172 4 2 0 805.098 791.615 793.633
5194 104 2 0 805.308 791.78 810.159
214 5 2 0 805.49 792.556 793.285
5227 105 1 0 806.278 791.814 809.079
211 5 1 0 805.383 793.588 792.916
5193 104 1 0 805.619 792.247 809.826
5195 104 1 0 805.108 791.21 809.507
212 5 2 0 805.026 793.458 793.725
213 5 1 0 804.629 793.626 793.69
178 4 2 0 804.437 793.866 792.358
5190 104 2 0 805.17 793.215 809.544
175 4 1 0 804.458 792.539 793.592
217 5 1 0 806.107 793.359 793.702
1204 25 2 0 806.184 809.256 793.615
5192 104 2 0 805.22 792.223 809.097
5187 104 1 0 804.165 793.121 809.17
5201 105 1 0 806.146 793.558 809.363
1205 25 1 0 806.092 808.94 793.108
210 5 2 0 806.154 794.035 792.807
215 5 1 0 805.468 792.552 794.158
5189 104 1 0 804.77 793.97 808.908
21 1 1 0 791.184 792.552 792.462
222 5 2 0 806.276 792.987 792.657
223 5 1 0 806.531 792.234 792.725
5228 105 2 0 806.723 792.607 809.325
218 5 2 0 806.501 792.652 793.706
6 1 2 0 791.09 792.231 793.579
224 5 2 0 807.137 791.9 793.176
225 5 1 0 807.678 792.466 793.301
227 5 1 0 807.174 791.665 792.074
231 5 1 0 807.969 791.376 793.602
229 5 1 0 808.119 791.674 792.63
250 5 2 0 808.406 793.059 791.637
226 5 2 0 807.581 792.552 792.418
5229 105 1 0 807.357 793.029 809.062
5230 105 2 0 808.147 792.031 809.269
230 5 2 0 808.804 791.485 792.778
220 5 2 0 807.112 793.373 793.206
221 5 1 0 807.012 793.461 792.41
246 5 2 0 808.124 793.416 792.818
247 5 1 0 807.828 793.922 791.88
5 1 1 0 790.756 793.096 793.895
219 5 1 0 806.836 792.517 794.035
243 5 1 0 807.84 793.997 793.71
5202 105 2 0 806.806 794.043 809.12
5231 105 1 0 807.963 791.133 809.136
280 6 2 0 792.379 794.942 793.053
3 1 1 0 791.44 794.114 793.251
256 6 2 0 791.538 794.853 792.439
283 6 1 0 792.635 794.826 791.94
5255 106 1 0 791.715 794.5 809.033
284 6 2 0 793.407 794.341 792.236
282 6 2 0 793.355 795.309 792.674
281 6 1 0 792.855 794.728 793.447
255 6 1 0 791.701 795.423 791.997
253 6 1 0 793.102 795.736 791.556
279 6 1 0 792.336 795.645 792.801
254 6 2 0 792.223 795.899 791.776
252 6 2 0 793.023 796.623 791.408
259 6 1 0 791.581 796.407 792.59
278 6 2 0 792.645 796.559 792.541
277 6 1 0 793.224 796.385 792.452
499 10 1 0 808.969 796.574 791.575
257 6 1 0 791.283 795.19 793.183
276 6 2 0 792.899 796.145 793.533
275 6 1 0 792.399 795.644 793.876
260 6 2 0 791.933 796.596 793.523
258 6 2 0 791.3 795.902 792.967
490 10 2 0 808.972 795.829 794.054
286 6 2 0 793.6 795.416 793.87
274 6 2 0 791.898 794.816 794.019
500 10 2 0 809.682 797.031 791.729
261 6 1 0 791.287 796.995 793.45
298 6 2 0 794.045 796.35 791.647
295 6 1 0 794.39 794.884 792.43
316 7 2 0 795.31 794.692 791.834
315 7 1 0 795.304 794.389 792.523
296 6 2 0 793.98 795.081 791.674
314 7 2 0 795.704 794.941 793.076
297 6 1 0 794.08 795.848 792.065
310 7 2 0 794.971 796.778 791.323
311 7 1 0 794.915 795.63 791.375
312 7 2 0 795.161 795.782 792.019
313 7 1 0 795.55 795.475 792.57
287 6 1 0 793.917 796.028 793.248
289 6 1 0 794.898 796.264 792.967
301 7 1 0 795.661 795.874 793.609
322 7 2 0 796.098 795.424 791.573
292 6 2 0 794.741 795.269 793.36
329 7 1 0 795.64 796.756 792.216
302 7 2 0 795.933 796.42 793.212
294 6 2 0 795.05 794.302 793.6
285 6 1 0 793.903 794.578 793.314
306 7 2 0 795.339 796.823 794.067
288 6 2 0 794.282 796.758 792.651
290 6 2 0 794.641 795.999 794.075
270 6 2 0 794.357 796.965 793.709
317 7 1 0 795.534 794.629 791.196
318 7 2 0 796.313 794.632 792.266
72 2 2 0 796.375 795.078 793.909
319 7 1 0 797.259 794.225 792.113
326 7 2 0 797.023 794.795 793.057
101 3 1 0 798.069 794.347 792.897
325 7 1 0 797.113 795.303 791.92
358 8 2 0 797.831 795.406 792.717
359 8 1 0 798.019 795.837 791.642
362 8 2 0 798.208 794.803 791.919
324 7 2 0 796.953 796.108 791.415
328 7 2 0 796.341 796.173 792.266
334 7 2 0 797.014 796.55 793.111
335 7 1 0 797.432 796.36 792.391
327 7 1 0 796.612 795.56 792.906
336 7 2 0 797.841 796.878 791.712
357 8 1 0 798.294 795.73 792.678
374 8 2 0 798.557 796.775 792.498
352 8 2 0 798.396 795.168 793.615
355 8 1 0 797.359 795.685 793.7
356 8 2 0 798.097 796.284 793.318
304 7 2 0 796.53 796.304 794.055
345 7 1 0 797.519 796.832 794.05
351 8 1 0 798.006 794.518 793.969
332 7 2 0 796.806 797.128 791.802
321 7 1 0 796.651 794.619 791.232
361 8 1 0 798.378 794.956 791.157
320 7 2 0 797.442 794.399 791.218
103 3 1 0 799.284 794.397 791.721
363 8 1 0 798.977 794.924 792.635
364 8 2 0 799.066 795.483 791.877
394 8 2 0 800.121 794.762 792.694
142 3 2 0 800.657 794.515 791.769
140 3 2 0 801.159 794.852 793.283
141 3 1 0 801.155 794.261 792.707
367 8 1 0 800.163 795.485 791.679
397 8 1 0 801.003 795.36 792.354
371 8 1 0 798.88 796.504 791.487
395 8 1 0 799.839 795.64 792.667
372 8 2 0 799.619 796.416 791.941
373 8 1 0 799.08 796.394 792.525
382 8 2 0 799.985 796.627 793.104
368 8 2 0 800.964 796.342 791.279
398 8 2 0 800.67 796.319 792.305
399 8 1 0 801.026 796.585 792.753
396 8 2 0 800.507 795.684 793.15
135 3 1 0 798.961 794.24 793.516
393 8 1 0 799.551 795.147 793.54
139 3 1 0 800.59 794.824 793.807
392 8 2 0 799.162 795.942 793.494
400 8 2 0 801.031 796.587 793.419
380 8 2 0 799.05 797.024 793.42
391 8 1 0 800.193 796.218 794.049
403 9 1 0 801.159 795.725 794.03
134 3 2 0 799.692 794.283 794.125
5426 109 2 0 801.682 794.908 809.157
153 4 1 0 802.018 794.865 792.601
421 9 1 0 802.541 795.484 791.854
187 4 1 0 802.826 794.479 791.493
186 4 2 0 803.076 794.622 792.329
422 9 2 0 802.625 795.797 792.503
5435 109 1 0 803.602 795.298 809.26
154 4 2 0 802.024 794.196 793.462
185 4 1 0 803.031 794.928 793.026
420 9 2 0 801.719 796.079 792.009
416 9 2 0 802.101 796.779 792.735
419 9 1 0 802.48 796.581 791.743
424 9 2 0 803.674 795.851 792.601
427 9 1 0 803.182 796.815 792.578
423 9 1 0 802.804 795.992 793.152
406 9 2 0 802.145 795.267 793.624
407 9 1 0 801.687 795.797 793.077
408 9 2 0 802.004 796.361 793.734
5434 109 2 0 803.384 796.082 809.109
414 9 2 0 802.974 796.834 793.877
425 9 1 0 803.771 796.148 793.572
436 9 2 0 803.595 797.12 791.617
409 9 1 0 801.924 797.052 793.775
418 9 2 0 801.997 796.934 791.378
195 4 1 0 802.939 794.709 794.11
188 4 2 0 803.741 794.198 791.58
190 4 2 0 803.918 795.021 793.621
189 4 1 0 804.076 794.856 792.505
445 9 1 0 805.079 794.991 792.177
444 9 2 0 804.618 795.624 793.068
203 5 1 0 804.893 794.531 793.15
447 9 1 0 805.864 794.577 791.488
204 5 2 0 805.768 794.997 793.066
446 9 2 0 805.399 794.346 792.097
437 9 1 0 804.373 796.27 791.881
442 9 2 0 804.246 797.211 792.448
443 9 1 0 804.492 796.531 792.894
458 10 2 0 806.132 795.467 792.038
450 9 2 0 805.317 796.03 792.359
459 10 1 0 805.479 796.556 791.447
205 5 1 0 805.621 795.756 793.38
202 5 2 0 805.576 794.35 793.904
192 4 2 0 804.943 795.196 794.028
201 5 1 0 806.169 795.139 794.088
449 9 1 0 805.363 795.533 791.306
5436 109 2 0 804.362 795.055 808.918
438 9 2 0 804.439 796.123 791.261
465 10 1 0 805.682 797.097 794.116
462 10 2 0 805.509 796.796 793.104
463 10 1 0 804.662 796.746 793.951
193 4 1 0 804.47 795.737 794.249
453 10 1 0 806.301 796.546 792.138
457 10 1 0 806.566 794.878 792.275
209 5 1 0 806.612 794.295 793.58
456 10 2 0 807.288 794.931 791.983
5493 110 1 0 808.332 794.846 809.363
244 5 2 0 807.414 794.371 792.876
494 10 2 0 807.864 795.073 793.592
497 10 1 0 808.013 795.487 792.587
245 5 1 0 808.177 794.44 792.755
495 10 1 0 806.834 795.281 793.235
454 10 2 0 806.401 796.217 792.766
455 10 1 0 807.167 795.893 792.045
498 10 2 0 808.358 795.949 792.007
474 10 2 0 807.237 796.834 791.508
480 10 2 0 808.105 796.601 792.819
481 10 1 0 807.265 796.838 792.634
496 10 2 0 807.362 795.853 793.1
493 10 1 0 808.402 794.839 794.081
489 10 1 0 808.277 796.151 793.813
452 10 2 0 806.44 796.149 791.237
482 10 2 0 807.398 796.735 793.691
475 10 1 0 807.973 796.997 791.816
484 10 2 0 806.499 796.154 793.848
5492 110 2 0 807.761 795.569 808.811
267 6 1 0 793.409 797.071 793.255
263 6 1 0 791.968 797.41 792.758
262 6 2 0 791.245 797.44 792.312
530 11 2 0 791.657 798.469 792.345
529 11 1 0 792.292 798.102 791.594
531 11 1 0 792.015 799.07 791.943
507 11 1 0 791.538 799.343 793.038
534 11 2 0 793.051 797.539 792.313
517 11 1 0 792.531 799.604 792.706
540 11 2 0 793 799.514 791.705
532 11 2 0 792.96 798.628 792.302
538 11 2 0 793.26 798.509 791.247
266 6 2 0 792.882 797.237 793.342
264 6 2 0 792.208 797.78 793.954
508 11 2 0 791.365 798.135 793.35
516 11 2 0 792.714 799.302 793.102
533 11 1 0 792.498 798.269 793.001
1779 36 1 0 793.019 798.584 793.893
541 11 1 0 793.601 799.492 792.527
511 11 1 0 791.98 798.87 793.871
512 11 2 0 792.321 799.528 794.04
535 11 1 0 793.568 798.122 793.061
744 15 2 0 808.834 799.798 794.03
268 6 2 0 793.563 797.619 794.112
1780 36 2 0 793.681 799.106 793.555
331 7 1 0 796.091 797.198 791.343
299 6 1 0 793.955 797.156 791.679
308 7 2 0 794.861 797.518 792.149
309 7 1 0 795.151 797.721 791.209
307 7 1 0 795.231 797.255 793.099
330 7 2 0 795.897 797.828 792.077
546 11 2 0 793.954 799.882 791.411
545 11 1 0 794.077 799.157 791.597
555 12 1 0 795.73 798.932 792.193
537 11 1 0 793.94 798.166 792.012
542 11 2 0 794.327 798.945 792.666
556 12 2 0 794.993 798.58 791.862
557 12 1 0 795.209 798.274 792.838
536 11 2 0 794.245 797.803 793.011
551 12 1 0 794.68 798.666 793.672
558 12 2 0 795.499 797.933 793.895
554 12 2 0 795.31 799.336 793.033
561 12 1 0 796.102 799.057 793.709
562 12 2 0 795.484 799.88 793.933
553 12 1 0 794.546 799.713 793.405
543 11 1 0 794.945 799.654 792.077
574 12 2 0 795.816 799.914 791.442
566 12 2 0 796.012 799.934 792.464
565 12 1 0 796.24 799.955 793.124
333 7 1 0 796.603 797.115 792.657
303 7 1 0 796.274 797.167 793.69
338 7 2 0 797.67 797.926 791.836
347 7 1 0 797.686 797.349 792.719
346 7 2 0 797.218 797.654 793.429
348 7 2 0 798.68 797.545 791.791
340 7 2 0 796.235 798.081 793.089
579 12 1 0 796.637 799.239 791.672
581 12 1 0 796.673 799.05 792.722
582 12 2 0 797.076 798.723 793.286
339 7 1 0 796.921 798.067 792.369
580 12 2 0 797.348 798.928 791.887
584 12 2 0 797.82 799.343 792.823
583 12 1 0 797.795 798.496 792.832
375 8 1 0 798.639 797.867 792.8
350 7 2 0 798.504 798.623 791.953
611 13 1 0 798.733 799.643 792.274
585 12 1 0 797.362 799.774 793.21
376 8 2 0 798.283 797.754 793.541
595 12 1 0 797.992 798.753 793.874
577 12 1 0 797.723 799.934 791.931
578 12 2 0 797.031 799.914 792.139
597 12 1 0 798.343 799.926 793.604
5596 112 2 0 796.781 798.083 808.881
5600 112 2 0 798.499 799.462 808.841
349 7 1 0 798.702 797.924 791.303
381 8 1 0 799.417 796.977 793.968
610 13 2 0 798.77 798.942 793.153
369 8 1 0 800.369 797.13 791.581
383 8 1 0 800.255 797.265 793.318
370 8 2 0 799.564 797.237 791.213
379 8 1 0 799.536 797.38 792.471
644 13 2 0 800.504 797.874 792.451
603 13 1 0 799.469 798.468 792.414
378 8 2 0 799.53 798 793.418
604 13 2 0 799.746 798.15 791.716
606 13 2 0 799.545 799.2 791.564
602 13 2 0 799.829 798.953 793.079
607 13 1 0 799.785 799.757 792.346
645 13 1 0 800.446 798.891 792.144
633 13 1 0 800.775 799.48 792.978
643 13 1 0 800.639 798.33 793.43
634 13 2 0 800.836 799.944 792.437
385 8 1 0 801.015 797.536 794.039
377 8 1 0 799.036 798.124 793.89
609 13 1 0 799.238 799.416 793.926
608 13 2 0 799.305 799.895 793.175
632 13 2 0 800.425 799.522 793.764
648 13 2 0 800.809 798.148 791.444
618 13 2 0 800.457 799.796 791.456
646 13 2 0 801.295 798.581 792.611
649 13 1 0 801.386 799.244 791.7
417 9 1 0 801.393 797.167 791.919
647 13 1 0 801.499 798.233 792.014
410 9 2 0 801.398 797.561 793
428 9 2 0 802.427 797.593 792.107
415 9 1 0 802.701 797.573 793.17
435 9 1 0 803.157 797.335 791.32
411 9 1 0 801.812 798.106 793.497
650 13 2 0 802.379 799.162 791.73
639 13 1 0 801.866 799.507 792.653
640 13 2 0 801.794 799.176 793.321
433 9 1 0 803.496 798.28 791.761
429 9 1 0 802.436 798.121 791.523
432 9 2 0 803.419 797.877 792.396
666 14 2 0 802.841 799.418 793.275
430 9 2 0 802.4 798.539 792.624
431 9 1 0 803.335 798.624 792.764
667 14 1 0 802.898 799.779 792.462
668 14 2 0 803.542 799.349 791.967
641 13 1 0 801.427 799.111 793.759
665 14 1 0 802.7 798.722 793.654
663 14 1 0 803.528 799.171 794.123
664 14 2 0 803.422 798.268 793.765
656 14 2 0 802.22 799.821 794.08
434 9 2 0 803.386 798.469 791.107
460 10 2 0 805.243 797.076 792.103
441 9 1 0 804.438 797.831 791.931
471 10 1 0 806.162 797.575 792.352
461 10 1 0 805.008 797.423 793.217
669 14 1 0 803.84 799.599 792.876
696 14 2 0 804.301 798.808 793.477
698 14 2 0 804.385 798.802 792.374
699 14 1 0 804.471 798.864 791.512
700 14 2 0 804.812 799.78 792.452
705 15 1 0 805.484 798.041 791.606
702 15 2 0 805.505 799.078 791.949
707 15 1 0 805.298 798.918 793.055
706 15 2 0 805.287 798.189 792.533
708 15 2 0 805.548 799.782 793.223
697 14 1 0 804.279 798.169 793.025
426 9 2 0 803.81 797.239 793.408
466 10 2 0 806.026 798.155 793.495
693 14 1 0 805.294 799.173 794.134
694 14 2 0 805.067 798.243 793.963
709 15 1 0 805.904 799.767 792.698
703 15 1 0 806.221 798.746 792.544
710 15 2 0 806.305 799.161 793.614
472 10 2 0 806.212 797.321 791.288
701 15 1 0 805.215 799.614 791.417
467 10 1 0 805.983 797.807 793.379
689 14 1 0 804.552 799.852 793.645
468 10 2 0 806.47 797.135 793.338
727 15 1 0 808.77 799.561 791.473
477 10 1 0 808.325 798.311 791.84
469 10 1 0 807.051 797.683 793.356
704 15 2 0 806.524 798.329 791.63
470 10 2 0 806.795 797.839 792.569
473 10 1 0 806.927 797.305 791.616
721 15 1 0 806.553 799.454 791.824
478 10 2 0 807.839 797.835 792.48
476 10 2 0 807.653 798.081 791.436
726 15 2 0 807.878 799.147 791.276
719 15 1 0 807.351 798.803 792.221
720 15 2 0 806.987 799.627 792.546
748 15 2 0 808.254 799.461 792.41
747 15 1 0 808.257 798.776 792.835
718 15 2 0 807.144 798.73 793.106
717 15 1 0 806.915 798.406 794.108
479 10 1 0 808.049 797.476 793.036
711 15 1 0 806.662 799.857 793.515
746 15 2 0 807.964 798.354 793.663
736 15 2 0 807.719 799.59 793.374
745 15 1 0 808.492 799.054 793.866
737 15 1 0 807.472 799.303 794.058
488 10 2 0 808.119 797.384 794.107
725 15 1 0 807.574 799.871 791.677
11 1 1 0 792.781 792.148 794.243
234 5 2 0 809.341 791.89 794.371
44 1 2 0 793.693 791.491 794.387
12 1 2 0 792.873 793.056 794.423
1255 26 1 0 792.171 792.549 795.107
1484 30 2 0 808.98 793.422 794.981
1276 26 2 0 793.34 792.041 795.217
1277 26 1 0 793.489 792.869 795.397
13 1 1 0 792.266 793.863 794.474
1266 26 2 0 792.232 793.498 795.62
1254 26 2 0 792.607 792.441 795.887
1252 26 2 0 791.456 792.69 795.949
1275 26 1 0 792.904 791.365 796.041
1253 26 1 0 792.207 792.754 796.438
1274 26 2 0 792.937 792.117 796.914
1256 26 2 0 792.337 791.614 795.194
1257 26 1 0 791.916 791.713 796.328
1258 26 2 0 791.567 792.205 797.081
1269 26 1 0 793.102 793.355 796.283
1265 26 1 0 791.543 793.858 795.955
1270 26 2 0 792.424 793.762 796.67
1259 26 1 0 791.38 793.332 796.842
1481 30 1 0 808.906 791.753 795.458
1267 26 1 0 792.945 793.744 795.279
1300 26 2 0 793.401 794.021 794.167
1292 26 2 0 793.85 792.739 796.793
1268 26 2 0 793.909 793.579 796.091
1291 26 1 0 793.783 791.989 796.227
48 1 2 0 794.811 791.564 794.638
47 1 1 0 794.999 791.394 794.876
43 1 1 0 793.958 792.136 794.28
50 1 2 0 794.948 792.664 794.517
49 1 1 0 795.129 792.404 794.427
1299 26 1 0 793.968 793.171 794.515
67 2 1 0 795.638 792.205 795.328
1296 26 2 0 794.407 792.278 795.341
1297 26 1 0 794.674 793.221 795.373
1043 21 1 0 794.034 808.85 795.384
68 2 2 0 795.721 793.238 794.959
66 2 2 0 796.055 791.682 794.853
1298 26 2 0 794.877 793.802 794.573
1278 26 2 0 793.96 794.028 795.108
1295 26 1 0 794.817 791.731 795.903
1294 26 2 0 795.071 792.542 796.189
1290 26 2 0 794.381 791.679 796.966
1293 26 1 0 794.537 792.736 796.358
1310 27 2 0 795.82 791.751 796.318
1302 27 2 0 795.573 793.179 796.922
1303 27 1 0 795.701 793.39 796.029
1309 27 1 0 796.226 792.488 796.209
1304 27 2 0 794.995 793.777 796.238
1305 27 1 0 794.557 793.65 796.939
69 2 1 0 796.209 792.632 794.322
94 2 2 0 798.491 791.231 794.88
78 2 2 0 797.01 791.814 794.369
77 2 1 0 797.276 792.492 794.255
1316 27 2 0 796.747 792.42 795.249
1365 28 1 0 798.458 792.82 794.382
1361 28 1 0 797.79 792.116 795.157
70 2 2 0 796.59 793.405 794.346
1334 27 2 0 797.509 793.191 795.063
1313 27 1 0 796.695 791.474 795.745
1312 27 2 0 796.851 791.658 796.515
1336 27 2 0 796.782 793.395 796.487
1335 27 1 0 797.325 792.596 796.149
1338 27 2 0 797.901 793.127 796.97
1360 28 2 0 798.021 791.803 795.903
1362 28 2 0 798.383 792.71 795.451
1317 27 1 0 796.604 793.629 795.447
1333 27 1 0 797.794 793.519 795.916
1369 28 1 0 798.432 793.743 795.059
1342 27 2 0 797.824 792.021 796.969
1359 28 1 0 798.637 792.495 796.465
1368 28 2 0 798.714 793.86 794.481
1315 27 1 0 797.421 791.1 795.081
1364 28 2 0 799.05 792.108 794.639
1366 28 2 0 799.334 793.099 795.008
1383 28 1 0 800.13 792.379 794.656
1382 28 2 0 799.901 791.89 795.274
133 3 1 0 800.262 793.435 794.333
1384 28 2 0 801.015 792.567 794.561
1367 28 1 0 799.517 793.784 795.041
1388 28 2 0 800.48 793.966 795.457
1357 28 1 0 799.018 791.271 795.84
1363 28 1 0 798.851 792.203 795.356
1358 28 2 0 799.095 791.799 796.341
1374 28 2 0 798.966 793.414 796.991
1381 28 1 0 799.626 792.683 795.965
1386 28 2 0 800.71 792.531 795.599
1387 28 1 0 800.395 793.184 795.386
1380 28 2 0 800.338 792.959 796.517
2386 48 2 0 800.598 809.086 795.998
2387 48 1 0 800.234 809.489 796.327
1370 28 2 0 798.899 793.521 795.925
1371 28 1 0 799.675 793.779 796.138
1396 28 2 0 800.74 793.974 796.532
1385 28 1 0 801.144 792.076 795.301
2389 48 1 0 801.201 809.911 796.557
2391 48 1 0 800.871 809.009 797.045
1395 28 1 0 801.108 793.419 797.184
95 2 1 0 799.515 791.153 794.367
158 4 2 0 801.843 791.912 794.261
1406 29 2 0 802.225 793.989 794.534
1399 28 1 0 801.456 793.427 795.431
1400 28 2 0 801.257 793.577 794.792
1414 29 2 0 802.076 792.522 795.747
2383 48 1 0 802.081 809.087 795.238
1405 29 1 0 802.345 793.592 794.784
1413 29 1 0 802.034 792.619 795.044
1411 29 1 0 802.846 792.709 794.393
1446 29 2 0 802.975 792.084 795.29
1408 29 2 0 802.577 793.509 795.817
1410 29 2 0 803.285 793.123 795.085
2388 48 2 0 801.607 809.347 796.299
1398 28 2 0 801.329 793.236 796.069
1425 29 1 0 802.473 791.422 796.906
1415 29 1 0 802.191 792.751 796.546
1424 29 2 0 802.742 791.852 796.292
1423 29 1 0 803.211 792.655 796.175
1422 29 2 0 803.039 793.436 796.778
1397 28 1 0 801.805 793.88 796.496
1409 29 1 0 803.608 793.649 795.873
1447 29 1 0 802.978 791.672 794.524
1445 29 1 0 803.797 791.773 795.854
1426 29 2 0 803.634 791.917 796.932
173 4 1 0 804.581 791.652 794.196
2449 49 1 0 804.111 808.799 795.047
1203 25 1 0 806.078 809.292 794.149
216 5 2 0 805.937 793.324 794.326
1448 29 2 0 803.882 792.281 794.783
198 4 2 0 804.648 793.037 794.665
1452 30 2 0 805.889 792.14 795.086
1453 30 1 0 805.657 793.083 795.335
1444 29 2 0 804.832 792.027 795.202
199 4 1 0 805.173 793.891 794.835
1450 29 2 0 804.65 793.369 795.69
1449 29 1 0 804.173 792.756 795.665
1442 29 2 0 804.727 791.999 796.373
1440 29 2 0 804.765 792.891 796.895
1443 29 1 0 805.158 792.45 795.989
1451 30 1 0 805.76 791.588 795.852
1459 30 1 0 805.501 793.436 796.345
1458 30 2 0 805.799 793.177 796.615
1456 30 2 0 805.695 792.101 796.866
1439 29 1 0 804.08 793.109 796.706
197 4 1 0 804.079 793.83 794.844
1460 30 2 0 805.01 793.971 796.522
1454 30 2 0 806.298 792.526 795.987
1220 25 2 0 807.109 809.042 794.224
239 5 1 0 807.03 793.58 794.262
2498 50 2 0 807.393 809.1 796.651
1483 30 1 0 808.729 792.667 794.869
238 5 2 0 807.663 792.982 794.7
1477 30 1 0 806.98 792.155 795.039
1476 30 2 0 806.663 792.959 795.057
236 5 2 0 808.311 791.714 794.54
237 5 1 0 807.838 792.226 794.33
1479 30 1 0 807.577 791.269 795.217
1482 30 2 0 808.072 792.28 795.457
1475 30 1 0 807.273 792.985 795.73
1478 30 2 0 807.07 791.845 795.727
1485 30 1 0 808.288 793.392 795.528
1474 30 2 0 806.511 793.596 795.928
242 5 2 0 808.049 793.963 794.629
1455 30 1 0 806.471 792.012 796.65
1251 26 1 0 790.821 791.746 796.429
1488 30 2 0 807.469 792.505 796.985
1489 30 1 0 806.952 792.989 796.752
1486 30 2 0 807.982 793.791 796.101
1487 30 1 0 808.104 792.771 796.444
1471 30 1 0 807.107 794.078 796.726
241 5 1 0 807.263 793.952 795.226
273 6 1 0 792.841 794.883 794.533
1520 31 2 0 792.176 794.522 795.338
1523 31 1 0 792.013 795.487 794.874
1522 31 2 0 791.626 795.484 795.686
1527 31 1 0 792.791 795.362 795.648
272 6 2 0 793.055 795.963 794.696
1524 31 2 0 792.006 796.228 794.818
265 6 1 0 792.688 796.946 794.242
1525 31 1 0 792.357 796.288 795.473
1528 31 2 0 793.452 796.006 795.735
1519 31 1 0 792.173 794.683 796.19
1271 26 1 0 792.866 794.341 796.948
1280 26 2 0 793.342 794.458 795.958
1515 31 1 0 791.759 795.438 796.819
1526 31 2 0 792.5 795.901 796.243
1514 31 2 0 791.555 796.444 796.264
1543 31 1 0 793.358 795.286 796.601
1529 31 1 0 793.367 796.59 795.585
271 6 1 0 793.672 796.5 794.196
1521 31 1 0 791.342 794.573 794.984
1513 31 1 0 791.644 797.048 795.556
1540 31 2 0 793.323 796.377 796.753
1544 31 2 0 793.696 795.081 795.17
1508 31 2 0 792.566 796.991 796.224
1319 27 1 0 795.563 794.289 795.407
1320 27 2 0 796.135 794.295 796.324
293 6 1 0 795.342 795.089 794.256
71 2 1 0 795.902 794.171 794.377
291 6 1 0 794.329 794.74 794.311
1545 31 1 0 794.03 795.607 794.88
1552 32 2 0 795 795.409 795.317
1546 31 2 0 794.341 796.248 795.094
1558 32 2 0 795.302 796.638 795.561
305 7 1 0 795.544 796.098 794.653
1559 32 1 0 796.085 796.297 795.592
1279 26 1 0 794.494 794.419 795.482
1553 32 1 0 794.351 795.472 795.934
1281 26 1 0 794.189 794.574 796.503
1324 27 2 0 795.296 794.515 796.968
1325 27 1 0 795.21 794.89 796.278
1551 32 1 0 794.331 796.585 796.103
1557 32 1 0 795.241 796.002 796.184
1561 32 1 0 795.446 796.941 796.655
1547 31 1 0 794.492 796.864 794.807
1554 32 2 0 794.338 795.723 796.745
1576 32 2 0 796.132 796.992 794.79
1560 32 2 0 796.19 796.501 796.377
1326 27 2 0 795.949 795.249 795.812
1556 32 2 0 795.507 795.81 796.822
73 2 1 0 796.95 794.381 794.09
1318 27 2 0 796.474 794.518 795.221
1332 27 2 0 797.505 794.289 795.136
354 8 2 0 797.446 795.298 794.55
1597 32 1 0 796.445 795.579 794.883
1617 33 1 0 798.415 794.84 794.922
1598 32 2 0 797.01 796.239 794.963
1599 32 1 0 797.715 796.262 795.033
344 7 2 0 798.358 796.827 794.252
353 8 1 0 798.283 795.746 794.28
1595 32 1 0 797.093 795.328 795.673
1331 27 1 0 797.184 794.374 796.09
1594 32 2 0 797.69 795.271 795.603
1614 33 2 0 798.713 795.266 796.319
1596 32 2 0 797.087 796.077 796.004
1571 32 1 0 797.674 797.026 796.293
1593 32 1 0 797.688 795.333 796.616
1600 32 2 0 797.714 797.007 795.155
1611 33 1 0 798.172 796.14 796.009
1610 33 2 0 798.639 795.796 795.392
1615 33 1 0 798.286 794.457 795.969
1609 33 1 0 798.725 796.64 795.248
1612 33 2 0 798.773 796.369 796.444
1330 27 2 0 797.615 794.167 796.874
1327 27 1 0 796.405 795.328 796.502
1373 28 1 0 798.72 794.386 796.958
390 8 2 0 800.573 796.593 794.372
1618 33 2 0 798.944 794.913 794.515
1619 33 1 0 799.878 794.83 795.068
1620 33 2 0 799.943 795.299 794.517
138 3 2 0 800.682 794.427 794.472
1389 28 1 0 800.916 794.492 795.542
404 9 2 0 800.941 795.427 794.868
1621 33 1 0 799.296 796.025 794.56
1625 33 1 0 800.702 796.365 795.453
1616 33 2 0 798.969 794.564 795.558
1372 28 2 0 799.277 794.367 796.563
1613 33 1 0 799.335 795.431 796.153
1390 28 2 0 800.209 794.796 796.104
1624 33 2 0 800.056 795.848 795.414
1623 33 1 0 799.611 796.438 795.797
1644 33 2 0 801.055 795.472 796.016
1643 33 1 0 800.48 795.892 796.421
1642 33 2 0 799.776 796.116 796.853
1622 33 2 0 799.756 796.799 794.988
1645 33 1 0 801.318 794.885 796.622
1626 33 2 0 800.491 796.968 796.133
1391 28 1 0 800.128 794.959 796.858
1407 29 1 0 803.087 794.234 795.141
1404 29 2 0 802.005 794.378 795.531
1653 34 1 0 801.439 796.481 796.272
405 9 1 0 801.642 794.824 794.274
1403 29 1 0 801.842 795.011 795.318
194 4 2 0 803.625 795.163 794.687
1402 29 2 0 802.708 795.204 795.291
402 9 2 0 802.085 795.771 794.597
389 8 1 0 801.391 796.599 794.618
1654 34 2 0 801.767 796.122 795.548
1664 34 2 0 802.423 796.92 794.822
401 9 1 0 802.857 795.812 794.249
1665 34 1 0 802.803 796.281 795.321
1401 29 1 0 802.661 794.531 796.373
1676 34 2 0 803.655 794.294 796.738
1672 34 2 0 803.217 795.435 796.212
1655 34 1 0 802.13 795.484 796.22
1656 34 2 0 802.361 795.996 796.586
1657 34 1 0 802.24 796.569 797
1668 34 2 0 803.304 796.509 796.367
1669 34 1 0 803.333 796.374 796.954
1673 34 1 0 803.3 795.275 797.018
1671 34 1 0 803.695 794.891 795.778
1661 34 1 0 802.355 796.986 795.978
1699 34 1 0 803.798 795.937 795.427
1666 34 2 0 803.346 797.043 795.442
208 5 2 0 806.28 794.25 794.733
196 4 2 0 803.681 794.185 794.241
191 4 1 0 804.609 794.679 794.415
200 4 2 0 804.69 794.44 795.558
1473 30 1 0 805.782 794.213 795.696
1698 34 2 0 804.515 795.467 795.284
1715 35 1 0 805.443 795.919 795.522
206 5 2 0 805.526 796.029 794.372
1697 34 1 0 804.703 796.52 795.004
1714 35 2 0 805.85 796.676 795.157
1677 34 1 0 804.232 794.732 796.719
1469 30 1 0 806.051 794.31 796.766
1716 35 2 0 805.688 795.2 796.164
1704 35 2 0 805.262 795.942 796.859
1670 34 2 0 804.202 795.758 796.42
1696 34 2 0 804.271 796.745 795.913
1683 34 1 0 804.347 796.614 797.031
1706 35 2 0 805.855 796.646 796.23
1695 34 1 0 804.8 796.592 796.053
1705 35 1 0 806.126 796.167 796.71
207 5 1 0 805.52 795.003 794.952
1700 34 2 0 803.693 796.422 794.63
1518 31 2 0 791.085 794.755 796.299
485 10 1 0 807.205 795.728 794.187
1720 35 2 0 808.018 794.7 795.469
1748 35 2 0 808.662 796.681 794.691
240 5 2 0 807.242 794.653 794.397
491 10 1 0 808.581 795.619 794.816
492 10 2 0 808.137 795.324 794.599
1719 35 1 0 807.286 795.346 795.265
486 10 2 0 807.625 796.295 794.682
1718 35 2 0 806.421 795.73 794.979
1732 35 2 0 806.916 796.704 795.403